# vtk DataFile Version 3.0
d-3__ created by libgimli-v1.0.9-2-ge0886b94
ASCII
DATASET UNSTRUCTURED_GRID
POINTS 3708 double
0.09	0.43	0
0.14	0.43	0
0.19	0.43	0
0.24	0.43	0
0.29	0.43	0
0.34	0.43	0
0.39	0.43	0
0.44	0.43	0
0.09	0.38	0
0.14	0.38	0
0.19	0.38	0
0.24	0.38	0
0.29	0.38	0
0.34	0.38	0
0.39	0.38	0
0.44	0.38	0
0.09	0.33	0
0.14	0.33	0
0.19	0.33	0
0.24	0.33	0
0.29	0.33	0
0.34	0.33	0
0.39	0.33	0
0.44	0.33	0
0.09	0.28	0
0.14	0.28	0
0.19	0.28	0
0.24	0.28	0
0.29	0.28	0
0.34	0.28	0
0.39	0.28	0
0.44	0.28	0
0.09	0.23	0
0.14	0.23	0
0.19	0.23	0
0.24	0.23	0
0.29	0.23	0
0.34	0.23	0
0.39	0.23	0
0.44	0.23	0
0.09	0.18	0
0.14	0.18	0
0.19	0.18	0
0.24	0.18	0
0.29	0.18	0
0.34	0.18	0
0.39	0.18	0
0.44	0.18	0
0.09	0.13	0
0.14	0.13	0
0.19	0.13	0
0.24	0.13	0
0.29	0.13	0
0.34	0.13	0
0.39	0.13	0
0.44	0.13	0
0.09	0.08	0
0.14	0.08	0
0.19	0.08	0
0.24	0.08	0
0.29	0.08	0
0.34	0.08	0
0.39	0.08	0
0.44	0.08	0
0	0	0
0	0.52	0
0.53	0.52	0
0.53	0	0
0	0	-0.02
0	0.52	-0.02
0.53	0.52	-0.02
0.53	0	-0.02
0.04	0.04	0
0.49	0.04	0
0	0.02	0
0	0.04	0
0	0.06	0
0	0.08	0
0	0.1	0
0	0.12	0
0	0.14	0
0	0.16	0
0	0.18	0
0	0.199999999999	0
0	0.219999999999	0
0	0.239999999999	0
0	0.259999999999	0
0	0.279999999999	0
0	0.299999999999	0
0	0.319999999999	0
0	0.34	0
0	0.36	0
0	0.38	0
0	0.4	0
0	0.42	0
0	0.44	0
0	0.46	0
0	0.48	0
0	0.5	0
0.01962962963	0.52	0
0.039259259259	0.52	0
0.058888888889	0.52	0
0.078518518518	0.52	0
0.098148148148	0.52	0
0.117777777778	0.52	0
0.137407407407	0.52	0
0.157037037037	0.52	0
0.176666666666	0.52	0
0.196296296296	0.52	0
0.215925925925	0.52	0
0.235555555555	0.52	0
0.255185185184	0.52	0
0.274814814814	0.52	0
0.294444444444	0.52	0
0.314074074073	0.52	0
0.333703703703	0.52	0
0.353333333333	0.52	0
0.372962962963	0.52	0
0.392592592592	0.52	0
0.412222222222	0.52	0
0.431851851852	0.52	0
0.451481481481	0.52	0
0.471111111111	0.52	0
0.490740740741	0.52	0
0.51037037037	0.52	0
0.53	0.5	0
0.53	0.48	0
0.53	0.46	0
0.53	0.44	0
0.53	0.42	0
0.53	0.4	0
0.53	0.38	0
0.53	0.36	0
0.53	0.34	0
0.53	0.32	0
0.53	0.300000000001	0
0.53	0.280000000001	0
0.53	0.260000000001	0
0.53	0.240000000001	0
0.53	0.220000000001	0
0.53	0.200000000001	0
0.53	0.18	0
0.53	0.16	0
0.53	0.14	0
0.53	0.12	0
0.53	0.1	0
0.53	0.08	0
0.53	0.06	0
0.53	0.04	0
0.53	0.02	0
0.51037037037	0	0
0.490740740741	0	0
0.471111111111	0	0
0.451481481482	0	0
0.431851851852	0	0
0.412222222223	0	0
0.392592592593	0	0
0.372962962963	0	0
0.353333333334	0	0
0.333703703704	0	0
0.314074074075	0	0
0.294444444445	0	0
0.274814814816	0	0
0.255185185186	0	0
0.235555555556	0	0
0.215925925927	0	0
0.196296296297	0	0
0.176666666667	0	0
0.157037037038	0	0
0.137407407408	0	0
0.117777777778	0	0
0.098148148148	0	0
0.078518518519	0	0
0.058888888889	0	0
0.039259259259	0	0
0.01962962963	0	0
0	0.02	-0.02
0	0.04	-0.02
0	0.06	-0.02
0	0.08	-0.02
0	0.1	-0.02
0	0.12	-0.02
0	0.14	-0.02
0	0.16	-0.02
0	0.18	-0.02
0	0.199999999999	-0.02
0	0.219999999999	-0.02
0	0.239999999999	-0.02
0	0.259999999999	-0.02
0	0.279999999999	-0.02
0	0.299999999999	-0.02
0	0.319999999999	-0.02
0	0.34	-0.02
0	0.36	-0.02
0	0.38	-0.02
0	0.4	-0.02
0	0.42	-0.02
0	0.44	-0.02
0	0.46	-0.02
0	0.48	-0.02
0	0.5	-0.02
0.01962962963	0.52	-0.02
0.039259259259	0.52	-0.02
0.058888888889	0.52	-0.02
0.078518518518	0.52	-0.02
0.098148148148	0.52	-0.02
0.117777777778	0.52	-0.02
0.137407407407	0.52	-0.02
0.157037037037	0.52	-0.02
0.176666666666	0.52	-0.02
0.196296296296	0.52	-0.02
0.215925925925	0.52	-0.02
0.235555555555	0.52	-0.02
0.255185185184	0.52	-0.02
0.274814814814	0.52	-0.02
0.294444444444	0.52	-0.02
0.314074074073	0.52	-0.02
0.333703703703	0.52	-0.02
0.353333333333	0.52	-0.02
0.372962962963	0.52	-0.02
0.392592592592	0.52	-0.02
0.412222222222	0.52	-0.02
0.431851851852	0.52	-0.02
0.451481481481	0.52	-0.02
0.471111111111	0.52	-0.02
0.490740740741	0.52	-0.02
0.51037037037	0.52	-0.02
0.53	0.5	-0.02
0.53	0.48	-0.02
0.53	0.46	-0.02
0.53	0.44	-0.02
0.53	0.42	-0.02
0.53	0.4	-0.02
0.53	0.38	-0.02
0.53	0.36	-0.02
0.53	0.34	-0.02
0.53	0.32	-0.02
0.53	0.300000000001	-0.02
0.53	0.280000000001	-0.02
0.53	0.260000000001	-0.02
0.53	0.240000000001	-0.02
0.53	0.220000000001	-0.02
0.53	0.200000000001	-0.02
0.53	0.18	-0.02
0.53	0.16	-0.02
0.53	0.14	-0.02
0.53	0.12	-0.02
0.53	0.1	-0.02
0.53	0.08	-0.02
0.53	0.06	-0.02
0.53	0.04	-0.02
0.53	0.02	-0.02
0.51037037037	0	-0.02
0.490740740741	0	-0.02
0.471111111111	0	-0.02
0.451481481482	0	-0.02
0.431851851852	0	-0.02
0.412222222223	0	-0.02
0.392592592593	0	-0.02
0.372962962963	0	-0.02
0.353333333334	0	-0.02
0.333703703704	0	-0.02
0.314074074075	0	-0.02
0.294444444445	0	-0.02
0.274814814816	0	-0.02
0.255185185186	0	-0.02
0.235555555556	0	-0.02
0.215925925927	0	-0.02
0.196296296297	0	-0.02
0.176666666667	0	-0.02
0.157037037038	0	-0.02
0.137407407408	0	-0.02
0.117777777778	0	-0.02
0.098148148148	0	-0.02
0.078518518519	0	-0.02
0.058888888889	0	-0.02
0.039259259259	0	-0.02
0.01962962963	0	-0.02
0.264844072279	0.471808402489	0
0.166043177754	0.470499310678	0
0.363956822246	0.470499310678	0
0.117026103638	0.470664521824	0
0.412973896362	0.470664521824	0
0.216421819263	0.46963761163	0
0.313578180737	0.46963761163	0
0.050098609235	0.204820949449	0
0.479901390765	0.255179050551	0
0.47976826892	0.355160081599	0
0.050280296778	0.105757745301	0
0.480349038965	0.404265336764	0
0.480020871706	0.304795702354	0
0.049979128294	0.155204297646	0
0.050102317928	0.254807494156	0
0.05023173108	0.304839918401	0
0.47976826892	0.154830528779	0
0.049792861269	0.404298702073	0
0.480488197881	0.104451488007	0
0.049979128294	0.354778181389	0
0.479897682072	0.205192505844	0
0.265	0.405	0
0.315	0.405	0
0.365	0.405	0
0.415	0.405	0
0.315	0.355	0
0.265	0.355	0
0.365	0.355	0
0.415	0.355	0
0.265	0.305	0
0.315	0.305	0
0.365	0.305	0
0.415	0.305	0
0.315	0.205	0
0.115	0.205	0
0.265	0.105	0
0.315	0.105	0
0.115	0.105	0
0.165	0.405	0
0.215	0.405	0
0.165	0.355	0
0.215	0.355	0
0.165	0.305	0
0.215	0.305	0
0.115	0.255	0
0.165	0.255	0
0.215	0.255	0
0.315	0.255	0
0.115	0.155	0
0.265	0.155	0
0.315	0.155	0
0.365	0.155	0
0.415	0.155	0
0.165	0.105	0
0.215	0.105	0
0.415	0.105	0
0.265	0.255	0
0.415	0.255	0
0.165	0.205	0
0.215	0.205	0
0.165	0.155	0
0.215	0.155	0
0.115	0.405	0
0.115	0.355	0
0.115	0.305	0
0.365	0.105	0
0.365	0.255	0
0.265	0.205	0
0.365	0.205	0
0.415	0.205	0
0.265001693839	0.043649812557	0
0.365	0.04350994513	0
0.165	0.04350994513	0
0.415	0.043858024691	0
0.115	0.043858024691	0
0.312402052669	0.045066951731	0
0.217597947331	0.045066951731	0
0.064651923403	0.47067643536	0
0.465348076597	0.47067643536	0
0.452555236666	0.044901077475	0
0.077444763334	0.044901077475	0
0.057051203474	0.070895447173	0
0.472948796526	0.070895447173	0
0.472656826901	0.43952302118	0
0.057343173099	0.43952302118	0
0.34	0.355	0
0.265	0.43	0
0.314959225256	0.429331830777	0
0.415	0.43	0
0.090669502058	0.354959327335	0
0.14	0.355	0
0.19	0.355	0
0.265	0.38	0
0.315	0.38	0
0.29	0.405	0
0.415	0.38	0
0.44	0.355	0
0.09	0.255	0
0.14	0.255	0
0.19	0.255	0
0.315	0.28	0
0.34	0.255	0
0.415	0.28	0
0.439330497942	0.255040672665	0
0.090669502058	0.204959327335	0
0.14	0.205	0
0.315	0.23	0
0.415	0.23	0
0.24	0.155	0
0.265	0.18	0
0.24	0.205	0
0.315	0.18	0
0.415	0.18	0
0.265	0.13	0
0.215	0.13	0
0.365	0.13	0
0.315	0.13	0
0.415	0.13	0
0.315454886874	0.079600809878	0
0.265	0.28	0
0.34	0.205	0
0.365	0.23	0
0.365	0.18	0
0.24	0.255	0
0.215	0.23	0
0.265	0.23	0
0.115	0.43	0
0.115	0.33	0
0.115	0.28	0
0.115	0.23	0
0.115	0.18	0
0.19	0.105	0
0.24	0.105	0
0.29	0.105	0
0.09	0.105	0
0.14	0.105	0
0.114837158358	0.079829261752	0
0.164986363079	0.428794820855	0
0.215040774744	0.429331830777	0
0.165	0.38	0
0.215	0.38	0
0.165	0.33	0
0.215	0.33	0
0.165	0.28	0
0.215	0.28	0
0.165	0.23	0
0.19	0.205	0
0.44	0.205	0
0.14	0.155	0
0.19	0.155	0
0.215	0.18	0
0.34	0.155	0
0.439330497942	0.154959327335	0
0.439501000395	0.1056136122	0
0.215	0.08	0
0.29	0.255	0
0.090669502058	0.155040672665	0
0.165	0.13	0
0.165460966089	0.079593499377	0
0.115	0.13	0
0.090498999605	0.4043863878	0
0.14	0.405	0
0.19	0.405	0
0.24	0.405	0
0.365013636921	0.428794820855	0
0.34	0.405	0
0.39	0.405	0
0.440072759381	0.403969131505	0
0.115	0.38	0
0.24	0.355	0
0.29	0.355	0
0.365	0.38	0
0.39	0.355	0
0.09	0.305	0
0.14	0.305	0
0.19	0.305	0
0.265	0.33	0
0.24	0.305	0
0.315	0.33	0
0.29	0.305	0
0.365	0.33	0
0.34	0.305	0
0.415	0.33	0
0.39	0.305	0
0.439330497942	0.304959327335	0
0.365	0.28	0
0.29	0.205	0
0.165	0.18	0
0.29	0.155	0
0.39	0.155	0
0.34	0.105	0
0.264535937775	0.079589019394	0
0.365	0.08	0
0.415162841642	0.079829261752	0
0.39	0.105	0
0.39	0.255	0
0.39	0.205	0
0.242593812313	0.459423460017	0
0.286669695239	0.459681315909	0
0.140075621092	0.459564717261	0
0.389924378908	0.459564717261	0
0.193049464671	0.4595649244	0
0.336950535329	0.4595649244	0
0.470719387607	0.379995572769	0
0.468333333333	0.33	0
0.470012295818	0.279936788703	0
0.059987704182	0.180063211297	0
0.060449304022	0.129889991693	0
0.059996634514	0.230071842122	0
0.470003365486	0.229928157878	0
0.059996634514	0.280071842122	0
0.470719387607	0.130004427231	0
0.060449304022	0.380110008307	0
0.060509865854	0.329970477354	0
0.468333333333	0.18	0
0.190262279959	0.486477637007	0
0.339737720041	0.486477637007	0
0.140316150644	0.48686531364	0
0.389683849356	0.48686531364	0
0.239073029798	0.487187436506	0
0.290558586231	0.487146926322	0
0.496454272976	0.329986600242	0
0.033558833748	0.127215201715	0
0.497018585813	0.379603462228	0
0.497228032548	0.279979728319	0
0.033545727024	0.230069121627	0
0.032771967452	0.180020271681	0
0.496454272976	0.229930878373	0
0.032771967452	0.280020271681	0
0.032988717025	0.37965358994	0
0.497228032548	0.179979728319	0
[...]
CELL_DATA 10569
SCALARS _Attribute double 1
LOOKUP_TABLE default
100 100 100 100 50 50 50 100 100 50 50 100 50 50 150 50 100 50 150 50 150 150 50 50 150 100 100 100 100 100 50 100 150 150 100 150 150 150 150 50 100 100 100 150 150 100 150 100 50 100 150 100 100 150 150 100 100 100 50 100 50 100 150 150 150 100 100 100 100 50 150 150 150 50 100 50 50 50 50 150 50 50 50 50 100 100 150 50 150 100 100 100 100 50 50 150 100 100 100 100 100 150 150 50 100 50 100 150 150 100 100 100 100 100 50 100 150 100 50 50 150 50 50 50 50 100 100 100 150 50 50 100 100 150 150 50 150 50 100 100 100 100 100 150 100 150 100 100 100 150 150 50 100 100 150 50 100 100 100 100 100 100 100 100 150 100 50 50 100 100 150 150 50 100 100 100 100 150 150 150 150 150 100 100 50 150 100 100 150 150 100 50 100 50 100 100 100 50 100 100 50 150 150 50 150 100 150 150 100 150 100 150 150 50 150 150 50 150 50 150 150 50 150 50 100 150 100 150 150 50 50 100 100 100 150 100 100 100 100 100 100 100 50 50 50 50 100 100 100 100 100 100 100 50 150 50 50 50 100 100 100 100 100 100 50 50 50 100 100 150 50 50 50 100 150 150 150 50 50 50 100 100 100 100 150 100 100 100 50 50 50 50 150 100 100 100 100 100 100 150 50 50 50 50 100 100 150 50 50 150 150 150 150 100 100 150 50 100 100 100 150 150 150 100 150 150 150 100 100 50 150 100 100 100 50 50 150 100 50 50 100 100 150 100 100 100 50 100 100 100 100 50 100 100 150 150 50 150 150 150 150 50 100 100 100 100 100 150 100 150 150 50 150 50 100 50 100 150 100 100 100 50 50 150 150 100 50 150 150 100 100 100 150 100 50 100 100 100 50 50 50 100 50 150 150 100 100 100 100 100 150 150 100 100 150 100 50 50 150 150 100 150 100 100 100 100 100 100 100 150 100 100 50 100 100 100 150 150 50 100 100 150 150 100 100 100 100 100 50 50 100 100 150 150 50 50 50 150 100 100 150 50 50 100 150 50 150 150 100 100 50 100 100 150 150 150 100 100 50 50 100 100 50 150 100 100 150 50 100 100 100 100 100 100 100 50 50 150 50 50 100 50 50 150 150 50 50 50 50 50 50 150 100 100 50 100 150 50 50 50 150 150 100 100 150 100 100 150 150 100 50 50 50 50 50 50 50 100 100 100 150 150 50 50 100 100 100 100 50 100 100 50 100 150 50 100 100 50 50 50 150 100 150 150 50 50 100 100 100 100 50 100 100 100 100 100 100 100 150 150 100 100 100 100 100 100 150 100 100 100 100 50 50 50 100 50 100 100 50 150 50 50 100 100 150 50 100 100 50 50 50 100 100 100 150 150 150 100 150 100 100 150 100 150 100 50 100 100 150 50 50 150 50 150 50 150 50 150 150 150 100 100 150 150 150 100 100 100 50 50 100 100 50 150 50 150 150 50 100 100 100 100 150 100 150 50 100 100 50 150 50 50 150 50 50 50 50 50 100 100 100 50 100 50 100 100 150 50 150 150 150 150 150 50 100 100 100 100 50 100 50 50 50 50 50 50 100 100 100 100 100 100 150 150 150 100 100 50 50 50 100 150 150 50 100 100 50 50 100 100 100 150 50 100 100 150 100 100 50 100 150 150 50 50 100 50 150 150 100 100 50 50 100 100 50 50 50 50 150 150 100 50 100 50 50 100 100 100 100 50 50 150 100 50 50 50 50 100 100 100 100 100 100 100 150 150 100 100 50 50 100 150 150 100 100 100 100 100 100 100 50 50 100 150 100 150 50 50 50 50 100 50 50 100 100 150 150 50 50 50 50 100 100 50 50 50 100 50 150 150 50 50 50 150 150 150 150 100 150 50 50 100 100 100 100 150 100 100 150 150 100 100 150 150 100 100 100 100 150 50 150 150 150 150 150 50 50 50 50 100 100 100 100 100 100 100 100 50 50 150 100 100 150 150 100 100 150 100 100 50 50 100 100 150 50 100 100 50 150 100 100 50 50 150 150 150 50 50 100 100 150 150 150 150 100 100 150 150 50 50 50 100 100 50 100 100 50 50 150 100 100 100 100 150 100 100 100 100 50 100 100 150 50 150 50 50 150 100 100 150 150 100 100 100 100 100 100 50 50 50 100 100 100 50 50 50 50 50 50 100 100 150 100 100 150 100 100 100 100 50 150 100 150 50 50 100 100 50 100 100 100 100 100 100 150 150 150 150 50 50 100 100 150 50 50 50 150 100 50 150 150 100 100 100 50 50 50 50 100 100 150 150 100 100 100 150 100 100 50 150 100 100 100 100 100 100 50 150 100 100 150 150 50 50 150 150 100 100 100 100 100 100 100 100 100 100 100 100 50 50 100 100 50 50 100 100 50 50 50 150 150 150 150 100 100 100 100 100 100 150 50 150 100 100 50 100 50 100 100 100 150 150 50 100 150 150 50 50 50 50 100 150 50 50 150 150 150 150 150 150 50 100 100 100 100 100 100 150 150 50 100 100 100 100 150 100 100 100 50 50 100 150 150 150 100 50 100 100 100 50 100 100 100 100 50 50 100 100 150 150 150 50 50 150 100 150 50 50 150 100 50 100 100 150 150 150 150 150 50 50 150 50 100 50 100 100 100 50 50 150 150 50 100 150 100 100 100 50 150 150 150 150 100 100 100 100 100 100 50 50 100 100 150 50 150 150 100 100 150 100 100 100 100 100 100 100 100 50 50 100 100 100 50 50 150 50 50 50 100 100 50 50 100 50 150 50 150 150 150 50 150 100 100 100 50 150 50 100 50 50 50 100 50 50 150 50 100 100 100 50 100 100 100 100 100 100 50 50 150 150 150 150 100 100 100 100 100 150 150 150 150 150 50 50 150 150 50 100 100 100 100 50 50 100 50 50 100 100 100 50 150 50 150 150 50 50 50 100 100 150 100 100 100 100 100 50 50 50 100 150 100 100 100 50 150 150 50 150 100 100 150 100 100 100 100 100 100 50 50 50 50 50 100 100 50 150 150 100 100 100 100 150 150 50 100 100 100 100 100 100 100 100 150 100 100 100 100 100 100 50 100 150 150 100 150 150 100 150 150 50 50 50 100 100 150 50 150 150 100 150 150 150 150 100 100 50 50 50 50 150 150 150 50 150 50 50 150 150 100 100 100 150 100 50 100 100 100 100 100 100 100 100 100 100 100 150 150 50 100 100 100 100 100 100 150 50 150 150 150 100 100 50 100 150 150 50 150 100 100 100 100 100 100 100 100 50 50 100 150 150 100 100 150 50 100 100 100 50 100 100 100 50 50 100 100 100 100 100 100 100 100 100 50 100 50 150 150 50 100 100 100 150 100 150 100 100 100 100 100 100 50 100 100 100 100 100 50 50 100 100 100 100 150 50 100 50 100 100 150 150 150 100 100 50 50 100 150 50 150 150 100 100 100 100 50 150 100 100 50 100 50 150 150 150 100 100 50 100 100 50 100 100 100 100 150 150 100 50 50 50 50 100 150 100 150 50 150 100 150 100 50 50 150 150 100 100 50 50 50 100 100 100 50 100 50 50 150 100 100 100 50 50 50 50 50 50 100 150 150 50 150 100 100 100 100 100 100 50 50 50 100 100 150 150 50 150 150 150 100 100 100 100 50 150 150 150 50 150 150 100 150 150 150 150 150 50 150 150 150 50 100 100 50 50 100 150 150 150 50 100 50 150 100 100 50 150 50 50 50 150 100 100 50 150 50 50 150 100 150 100 150 100 150 150 100 100 150 150 50 150 50 150 100 100 100 50 50 150 150 150 50 50 150 50 100 100 150 100 100 100 50 50 50 100 100 50 50 150 100 150 150 150 100 100 100 150 150 100 150 100 100 50 100 100 50 50 50 50 50 100 50 100 100 100 100 100 100 50 100 100 150 150 100 100 100 150 150 50 50 100 100 100 100 100 100 150 100 100 100 100 100 100 100 50 150 50 100 100 150 50 150 150 150 150 50 150 150 150 150 150 100 150 150 150 100 50 150 100 100 150 150 100 100 100 50 50 100 100 150 50 150 150 100 100 100 100 100 100 50 50 100 50 150 50 50 100 150 150 50 150 150 100 100 150 150 50 50 150 150 100 150 100 100 150 100 100 50 50 150 100 100 100 100 50 50 150 50 50 50 100 100 50 100 50 150 150 150 100 50 50 50 150 50 50 50 100 100 100 50 100 100 100 100 100 50 50 50 50 50 50 50 50 150 150 100 100 100 150 100 100 100 150 50 50 50 150 50 50 50 100 100 100 100 150 50 150 150 150 150 150 150 50 150 150 50 50 100 100 150 100 100 50 50 50 50 50 50 100 100 100 100 100 100 100 100 100 150 100 100 100 100 100 150 100 100 100 100 100 100 100 150 100 100 50 100 100 100 50 100 50 150 100 50 50 100 50 50 100 100 100 100 50 150 150 150 150 150 50 100 150 150 100 100 150 50 100 50 100 100 100 100 100 100 100 100 100 100 150 50 150 150 50 100 150 100 100 50 100 100 50 150 150 150 100 100 100 150 50 50 50 100 100 150 150 100 100 50 50 150 150 100 50 150 50 50 50 100 50 150 100 150 150 100 150 150 100 100 100 150 50 50 100 100 100 100 100 50 100 150 150 100 100 150 150 150 150 100 100 50 100 50 100 50 100 100 150 150 50 150 50 150 150 50 50 100 100 100 100 50 50 50 100 50 50 50 150 50 100 100 150 100 50 150 150 50 50 150 50 150 150 150 100 100 150 100 100 150 50 50 50 150 150 50 100 100 150 150 100 100 50 100 50 50 150 50 50 150 150 150 100 100 100 100 100 150 150 100 100 50 100 100 100 100 50 100 150 100 100 100 100 100 100 150 150 150 50 150 100 100 100 100 150 50 50 100 100 100 150 150 150 50 100 150 50 100 50 50 100 50 100 100 100 100 50 50 50 150 150 150 150 150 50 150 150 150 150 100 100 50 50 50 50 150 150 150 100 100 50 100 50 50 100 100 100 100 50 150 150 50 50 50 100 50 150 150 100 150 150 50 100 150 150 150 50 50 100 150 100 150 50 50 150 150 150 100 100 50 150 100 100 100 150 150 100 100 100 100 150 150 100 50 100 150 50 100 100 150 100 100 150 100 100 50 150 100 150 150 150 150 50 50 50 50 100 100 100 150 100 100 100 50 100 100 100 100 150 50 150 50 50 150 150 150 150 150 50 150 150 100 50 100 50 150 100 150 150 100 50 150 150 150 50 50 150 150 50 150 150 50 50 100 100 100 150 100 100 50 150 50 100 100 50 50 50 50 100 100 100 50 100 100 50 150 100 100 100 50 100 100 100 150 100 150 150 150 100 150 100 100 150 150 50 150 100 100 150 100 100 100 100 100 100 100 100 150 100 50 50 150 50 50 100 100 100 50 50 100 100 100 150 150 100 100 50 50 100 150 150 150 150 100 100 50 150 100 100 150 150 50 100 100 100 150 100 150 150 150 100 50 50 150 100 100 100 100 100 150 100 100 150 50 100 100 50 50 100 100 100 100 50 150 50 50 50 50 100 100 100 100 150 100 100 100 50 50 100 100 100 150 100 100 150 50 100 100 100 100 50 150 100 100 50 50 100 100 150 50 150 50 100 50 100 50 150 50 100 150 100 150 50 150 100 150 100 100 50 150 50 100 50 150 50 150 100 100 50 50 100 150 100 150 50 100 150 150 150 50 100 50 100 100 100 150 100 150 150 50 150 150 150 50 150 50 50 100 100 100 100 100 50 100 100 100 50 150 150 150 150 100 150 50 150 100 50 100 150 50 150 50 50 50 50 100 100 100 100 100 100 100 50 50 100 150 100 100 100 150 50 50 150 50 50 100 50 100 100 100 50 150 150 100 100 150 100 100 100 100 100 100 150 150 50 50 100 100 100 100 50 50 100 100 50 100 100 150 50 150 50 50 150 100 100 50 150 50 150 50 50 100 100 150 150 100 50 150 50 100 100 100 50 50 150 150 50 100 100 100 100 150 150 150 100 100 100 100 100 100 100 150 100 150 100 50 50 100 150 50 50 150 50 150 150 100 150 150 150 50 100 50 50 100 100 100 100 100 100 100 50 50 50 100 50 100 100 100 150 50 50 100 100 100 100 150 50 100 100 50 50 100 150 100 50 150 150 150 150 100 100 100 100 150 100 100 100 100 50 100 50 100 100 150 100 100 100 100 150 100 100 50 50 100 100 100 150 150 100 150 100 100 100 100 100 150 150 100 50 150 100 50 50 100 100 50 100 100 100 100 100 100 150 150 150 100 100 100 150 150 50 100 150 150 100 100 100 100 100 100 100 150 150 50 150 50 100 50 150 150 50 100 100 50 100 100 100 150 50 100 100 100 100 150 100 100 50 150 150 100 100 150 100 100 100 100 50 100 100 150 100 50 50 100 100 150 150 100 100 50 50 150 100 100 150 100 100 150 50 50 50 150 150 100 50 100 150 100 100 50 100 100 100 100 100 100 100 100 150 100 100 100 150 100 100 50 50 150 50 50 50 100 50 100 100 50 100 100 100 50 50 150 50 150 100 100 100 150 150 150 150 150 100 100 100 100 100 100 100 150 100 150 150 50 100 150 50 100 100 100 100 100 50 150 50 50 100 100 100 150 150 50 50 100 100 50 150 100 100 100 50 150 150 50 150 50 100 150 150 100 50 150 150 150 100 50 100 100 100 50 150 50 100 150 150 100 100 150 150 50 150 100 100 50 50 100 150 150 100 100 50 100 150 100 100 150 150 100 150 150 150 150 50 50 150 150 150 100 100 100 100 50 150 100 100 150 50 50 100 100 100 100 150 150 100 150 50 100 100 100 50 50 50 50 50 150 150 150 100 50 50 100 100 50 150 150 100 150 50 50 150 100 100 100 150 100 100 150 150 150 150 100 100 100 100 150 50 100 100 100 100 150 100 50 50 50 50 150 50 50 100 100 100 100 100 100 100 150 50 100 150 150 50 150 100 100 50 150 150 100 100 100 100 150 150 150 150 150 50 150 150 150 150 150 150 150 100 100 100 50 100 50 50 100 100 100 100 150 100 50 50 100 100 100 100 50 100 50 100 50 50 150 150 150 100 50 150 150 150 50 100 150 100 100 150 100 150 150 100 100 100 50 100 100 50 50 100 100 100 50 50 50 150 100 50 150 150 150 100 150 50 50 150 100 150 100 100 50 150 100 100 50 100 50 100 100 100 100 100 150 50 50 150 50 50 100 100 50 100 150 50 150 150 150 150 100 100 100 100 100 150 100 100 100 100 50 150 150 150 150 50 50 50 50 50 50 100 100 150 100 100 100 100 150 50 50 100 100 150 150 100 150 150 150 50 50 50 50 50 150 150 50 150 100 100 150 150 100 100 50 50 50 50 100 100 150 150 150 100 100 50 50 100 100 100 50 50 150 150 150 50 100 50 100 50 50 100 150 150 100 100 150 50 50 50 50 50 150 50 100 100 150 50 50 150 100 100 100 100 100 50 100 100 150 50 150 100 100 50 150 100 150 150 150 150 150 150 100 50 50 100 150 50 100 100 50 150 50 50 150 100 150 100 100 100 150 150 150 100 100 150 150 150 150 100 50 150 100 100 100 100 100 50 50 100 50 50 50 100 150 50 100 100 150 150 50 150 100 100 100 150 150 150 100 100 50 50 100 50 150 150 150 100 100 150 150 50 150 50 100 50 100 100 100 100 100 100 100 100 100 100 150 50 150 50 150 50 100 150 150 100 100 100 100 100 100 50 150 150 100 50 150 100 100 100 50 50 150 50 100 150 100 50 100 100 100 100 100 150 100 150 50 150 150 150 150 150 150 150 100 50 50 50 50 50 50 150 150 150 50 150 150 100 100 100 100 100 150 100 100 50 150 50 150 150 50 150 150 50 100 100 100 100 150 100 50 50 50 150 50 50 100 50 50 100 50 150 100 150 150 50 50 150 50 100 150 150 50 100 100 100 50 50 50 100 100 100 50 150 50 100 150 50 50 150 100 50 50 150 150 150 50 100 100 100 50 50 100 100 50 50 50 50 50 50 100 100 100 100 100 100 150 50 150 50 100 100 100 150 50 100 50 100 100 50 50 100 100 50 150 150 150 100 150 50 150 150 100 150 100 100 50 50 150 150 50 150 100 100 100 100 50 150 50 50 100 100 50 150 100 150 150 150 100 50 150 150 100 50 50 150 100 100 100 100 100 100 100 150 100 100 100 50 150 150 50 100 100 100 100 50 50 100 100 50 150 100 100 100 150 100 50 100 50 150 100 50 100 50 150 50 50 100 100 100 100 150 100 100 50 100 100 100 100 100 100 50 50 100 50 100 50 50 150 150 50 50 50 150 50 50 50 100 50 150 50 100 100 100 50 50 100 150 100 50 100 100 50 150 50 100 100 50 50 100 100 100 100 100 150 150 50 100 100 150 50 100 100 100 150 150 150 50 50 100 100 100 100 50 150 50 100 100 100 150 150 150 100 100 100 150 100 100 100 100 100 150 150 50 150 50 50 150 150 150 150 150 150 100 150 100 100 100 100 50 100 100 100 50 50 150 150 100 100 100 100 100 150 100 100 50 100 100 100 100 50 50 150 50 100 100 50 150 150 100 100 150 50 50 100 150 50 50 150 100 50 150 50 100 50 50 50 50 150 100 150 150 150 50 50 50 100 100 150 150 150 150 100 150 150 100 100 100 50 50 150 150 50 150 50 100 100 100 50 50 150 100 100 100 100 150 100 100 100 100 150 150 100 50 50 50 150 150 50 100 100 150 150 50 50 100 150 50 100 100 100 150 150 100 100 50 50 150 100 100 100 100 50 100 100 100 150 50 150 50 150 150 100 150 50 150 150 50 50 150 100 100 50 100 100 100 50 100 100 100 100 100 100 100 100 150 150 150 50 50 150 100 100 150 50 100 150 150 150 150 50 50 50 150 50 50 50 100 100 100 100 100 100 100 50 50 50 50 150 150 150 150 50 100 150 50 50 150 100 100 150 100 100 100 100 100 100 150 150 100 100 50 100 100 100 100 50 50 50 150 100 150 50 50 100 50 150 150 50 100 100 100 100 150 150 50 100 100 100 100 150 100 100 100 100 100 100 50 100 50 100 100 150 100 150 100 100 50 100 50 50 50 150 50 150 50 100 100 50 50 100 100 100 100 150 100 100 50 150 50 100 150 150 150 150 150 100 50 150 50 150 100 50 100 100 100 100 100 50 50 150 50 150 150 50 50 50 150 150 100 50 50 50 50 50 150 150 100 50 50 100 50 100 100 100 150 50 50 150 100 100 100 100 50 150 150 50 150 50 100 50 100 100 100 100 150 150 150 50 50 50 150 50 100 100 100 100 100 150 150 50 150 50 150 50 100 100 100 150 150 150 50 100 150 100 100 100 100 100 100 100 100 100 150 150 150 100 50 50 100 150 150 50 150 100 100 100 100 150 150 150 100 100 50 50 100 150 100 150 150 150 50 50 100 100 100 150 150 150 150 50 50 100 150 100 150 50 50 100 50 100 150 100 100 50 50 150 150 50 150 100 100 50 50 50 150 150 50 100 100 100 150 150 100 100 150 100 50 100 150 150 50 150 150 150 100 150 150 50 100 100 150 150 50 100 150 50 150 50 150 150 100 50 50 150 150 100 150 100 100 100 100 100 150 50 100 150 100 50 100 50 100 50 150 100 100 50 100 150 100 100 100 50 50 100 100 150 50 150 150 100 50 150 50 100 100 100 100 150 50 100 50 100 50 50 150 100 100 100 50 150 100 100 100 100 100 150 150 100 150 50 100 150 150 100 100 100 50 100 100 100 150 50 100 100 100 50 150 100 100 100 50 50 150 150 100 50 100 50 150 150 50 150 50 100 150 150 100 50 100 100 150 150 50 50 150 50 100 100 100 150 50 50 50 50 100 150 50 100 100 100 100 50 100 150 150 100 150 100 50 100 150 100 100 100 50 50 50 50 100 150 100 150 50 50 50 100 150 150 50 50 150 50 100 100 100 150 150 150 100 100 100 150 150 50 100 50 50 150 100 50 100 150 150 100 50 50 100 50 50 150 50 50 100 100 100 100 50 100 100 50 150 100 100 50 150 150 100 100 50 100 50 100 150 100 50 100 150 50 50 50 150 50 100 100 150 50 150 100 100 150 50 100 150 150 100 100 50 150 150 150 50 50 150 150 150 150 100 100 100 150 150 50 100 150 50 100 100 100 50 50 100 50 50 100 100 100 100 150 150 50 100 100 150 150 50 150 150 50 50 50 50 100 50 50 150 150 150 50 50 150 100 150 50 50 50 100 100 150 100 150 150 150 100 50 150 50 150 150 100 150 50 100 100 100 150 50 150 100 100 100 100 150 100 150 100 100 150 150 100 50 150 100 50 100 150 50 100 100 150 50 100 50 100 150 150 50 150 50 50 150 100 50 100 50 150 100 50 50 150 100 150 100 100 50 50 150 100 50 50 50 150 100 100 100 50 150 150 150 100 150 50 100 50 50 50 150 100 100 150 150 100 100 100 100 150 100 150 100 50 150 150 100 150 150 50 50 50 50 150 150 150 50 150 50 150 100 100 150 50 50 50 150 150 50 50 100 100 100 100 100 50 150 100 100 150 150 150 150 50 50 150 50 150 150 150 100 100 100 100 50 100 100 100 100 50 100 100 100 150 150 50 150 150 100 150 100 100 100 100 100 150 100 100 50 50 50 50 150 50 100 100 100 150 150 50 150 100 100 50 100 50 150 150 100 100 150 50 50 100 150 50 100 100 100 100 150 150 150 150 50 150 50 150 100 50 150 150 50 150 100 50 100 100 100 50 100 100 150 150 150 50 50 100 50 50 150 100 100 100 100 50 150 100 100 100 50 50 150 50 50 50 100 50 150 50 50 100 100 100 150 100 100 50 100 100 100 100 100 100 50 50 150 150 50 50 150 50 50 100 100 100 100 50 100 100 50 50 100 150 50 50 50 150 50 50 150 100 50 100 50 50 100 100 50 100 100 50 150 100 100 100 100 100 150 50 100 50 150 150 100 50 50 150 150 50 50 150 100 50 50 150 50 50 50 50 50 100 150 50 150 100 100 50 150 150 50 50 50 50 50 50 100 100 50 100 50 150 150 100 150 150 150 50 150 100 50 150 100 50 50 50 100 100 150 100 100 150 50 100 100 100 100 50 50 100 100 150 100 50 50 150 150 150 50 50 100 100 50 100 100 100 50 150 100 150 50 50 100 50 100 100 100 100 100 150 50 100 100 50 50 100 100 100 50 100 100 100 50 50 100 150 50 100 100 50 50 100 100 50 50 50 150 150 50 150 150 100 150 100 100 150 150 100 150 50 100 100 100 150 100 150 100 100 100 50 150 150 150 150 100 100 50 100 50 150 100 50 150 50 50 150 100 150 100 150 150 50 50 50 100 100 50 100 100 150 50 100 150 100 150 50 150 50 100 50 50 100 150 50 50 50 100 100 150 150 100 50 50 100 100 150 150 50 100 100 100 100 100 100 150 100 50 100 100 100 100 50 50 50 100 150 150 50 150 100 150 150 50 50 50 50 50 50 100 100 100 150 100 100 100 150 50 50 50 150 150 150 50 50 100 100 100 100 150 150 100 100 100 50 50 150 50 50 100 150 100 100 150 150 50 50 50 100 100 100 100 100 100 150 50 100 150 150 100 100 50 100 50 150 150 50 100 100 100 150 150 50 100 50 50 100 100 100 50 50 100 150 50 50 50 150 150 50 150 50 100 100 150 150 50 150 100 100 100 150 150 150 150 100 100 50 150 50 50 150 100 100 50 50 50 150 50 50 50 150 150 50 100 150 100 100 100 100 100 100 50 100 50 50 100 50 50 100 100 150 100 50 150 100 50 50 150 50 50 100 50 50 150 150 150 100 100 100 50 100 50 150 50 100 100 100 50 100 100 50 50 100 150 50 100 100 50 50 100 100 100 50 150 100 50 50 50 100 150 100 50 100 100 50 100 100 50 150 150 150 150 100 50 100 150 100 100 50 100 100 150 50 150 50 50 150 50 150 100 100 100 100 100 100 50 150 50 100 150 100 150 150 50 100 50 100 150 150 50 50 50 100 150 100 100 150 150 