# vtk DataFile Version 3.0
d-3__ libgimli-untagt-win: I=3 lam=100 wz=1 rrms=9.64903% chi^2=0.932903
ASCII
DATASET UNSTRUCTURED_GRID
POINTS 3708 double
0.20875	0.36125	0
0.201153500611	0.362903095313	-0.02
0.215	0.355	0
0.20875	0.34875	0
0.32125	0.38625	0
0.315	0.3925	0
0.32125	0.39875	0
0.311205155937	0.395744532747	-0.02
0.258230267694	0.329259095561	-0.02
0.25875	0.32375	0
0.265	0.3175	0
0.27125	0.32375	0
0.29	0.43	0
0.28375	0.42375	0
0.2775	0.43	0
0.281544131867	0.416968405017	-0.02
0.14	0.33	0
0.150333787137	0.321220521835	-0.02
0.14625	0.32375	0
0.14	0.3175	0
0.14225390959	0.295634604696	-0.02
0.14625	0.28625	0
0.13375	0.28625	0
0.14	0.28	0
0.098374352164	0.181313049365	-0.02
0.096398921959	0.18611442281	0
0.090595687836	0.19195769124	0
0.09	0.18	0
0.186466833039	0.219995595319	-0.02
0.18375	0.21125	0
0.19625	0.21125	0
0.19	0.2175	0
0.215	0.3925	0
0.22125	0.39875	0
0.22125	0.38625	0
0.20875	0.3925	-0.012145442226
0.116740570949	0.276566151323	-0.02
0.1025	0.2675	0
0.10875	0.26125	0
0.115	0.2675	0
0.10875	0.27375	0
0.34	0.255	0
0.3525	0.255	0
0.34625	0.24875	0
0.358996020847	0.253860479079	-0.02
0.13375	0.39875	0
0.12125	0.39875	0
0.1275	0.405	0
0.129122491449	0.408870482583	-0.02
0.1275	0.3925	0
0.3775	0.33	0
0.37125	0.32375	0
0.37125	0.33625	0
0.378126816436	0.321796339446	-0.02
0.070035675128	0.286267737081	-0.02
0.068486572266	0.272179838022	0
0.076618866416	0.271670979741	0
0.074263982096	0.280427988525	0
0.34	0.2425	0
0.346374481374	0.241144942973	-0.02
0.15875	0.16125	0
0.148551688918	0.167061574909	-0.02
0.15875	0.17375	0
0.165	0.1675	0
0.40875	0.12375	0
0.40875	0.11125	0
0.4025	0.1175	0
0.413116014998	0.125897417305	-0.02
0.119889283632	0.420891066613	-0.02
0.1275	0.43	0
0.12125	0.42375	0
0.1275	0.4175	0
0.3775	0.38	0
0.381268555769	0.381088128732	-0.02
0.37125	0.37375	0
0.37125	0.38625	0
0.39625	0.12375	0
0.394900152726	0.131131528455	-0.02
0.13375	0.32375	0
0.132589935279	0.332412239069	-0.02
0.1275	0.3175	0
0.12125	0.32375	0
0.106414392519	0.137228580558	-0.02
0.115	0.1425	0
0.115	0.13	0
0.12125	0.13625	0
0.40875	0.33625	0
0.40875	0.32375	0
0.4025	0.33	0
0.397645794688	0.3311519556	-0.02
0.28375	0.19875	0
0.29625	0.19875	0
0.29	0.1925	0
0.28688094932	0.189642930542	-0.02
0.29625	0.16125	0
0.29	0.155	0
0.28375	0.16125	0
0.284225035671	0.170990018223	-0.02
0.29	0.1675	0
0.3025	0.13	0
0.30875	0.13625	0
0.30875	0.12375	0
0.319439328472	0.13587652738	-0.02
0.315	0.13	0
0.164986363079	0.428794820855	0
0.175250993586	0.433996273265	-0.02
0.165775620434	0.440591111664	0
0.171879825127	0.434711104924	0
0.202136540782	0.213279116348	-0.02
0.20875	0.19875	0
0.215	0.205	0
0.2025	0.205	0
0.42125	0.18625	0
0.42125	0.17375	0
0.415	0.18	0
0.42665186277	0.1727873223	-0.02
0.43678738199	0.23928738199	0
0.44	0.23	0
0.4275	0.23	0
0.442567569732	0.241119449201	-0.02
0.17125	0.16125	0
0.18375	0.16125	0
0.180250557402	0.154564968067	-0.02
0.1775	0.1675	0
0.44	0.28	0
0.433204912237	0.286764075276	0
0.439935945109	0.291849229488	0
0.444776437501	0.295576968212	-0.02
0.42125	0.29875	0
0.4275	0.2925	0
0.415	0.2925	0
0.428358519147	0.301512178514	-0.02
0.42125	0.13625	0
0.415	0.13	0
0.415	0.1425	0
0.424772055325	0.13694147568	-0.02
0.40875	0.13625	0
0.15875	0.36125	0
0.171140552636	0.352720212904	-0.02
0.17125	0.36125	0
0.165	0.355	0
0.188156276436	0.235512863881	-0.02
0.18375	0.23625	0
0.18375	0.24875	0
0.1775	0.2425	0
0.218840760536	0.446582357875	-0.02
0.216914815454	0.441904787118	0
0.207721516887	0.447178150623	0
0.211120671103	0.436121919601	0
0.208167305511	0.432906538433	-0.02
0.215040774744	0.429331830777	0
0.207680819814	0.425943820046	0
0.215	0.4175	0
0.42125	0.28625	0
0.38375	0.33625	0
0.38375	0.32375	0
0.265	0.3675	0
0.265	0.38	0
0.257947235197	0.381135178887	-0.02
0.25875	0.37375	0
0.439404312164	0.26804230876	0
0.433601078041	0.27388557719	0
0.436672904134	0.265534246005	-0.02
0.331649848763	0.427449215034	0
0.3275	0.4175	0
0.322596332264	0.426635127733	0
0.337807216678	0.419856722519	-0.02
0.081012350419	0.333427307903	-0.02
0.068743504439	0.322162220027	0
0.076840748456	0.321694228492	0
0.074336380727	0.330411293296	0
0.206914942126	0.072105333066	-0.02
0.215	0.08	0
0.217015039509	0.069339860732	0
0.22125	0.075660893481	0
0.375218402239	0.43941797363	0
0.385717031935	0.438419534561	0
0.379813201918	0.42887189864	0
0.388258168876	0.442401538436	-0.02
0.2525	0.0925	0
0.264125819572	0.085801808254	-0.02
0.2525	0.08	0
0.24625	0.08625	0
0.25875	0.08625	0
0.3525	0.2925	0
0.35875	0.29875	0
0.365	0.2925	0
0.352808877326	0.28421790823	-0.02
0.35875	0.28625	0
0.315576391837	0.418049172515	0
0.32029722395	0.410697524515	-0.02
0.211282284226	0.13395576983	-0.02
0.2275	0.13	0
0.22125	0.13625	0
0.215	0.13	0
0.2025	0.355	0
0.099983585652	0.337195275374	-0.02
0.1025	0.3425	0
0.1025	0.355	0
0.09625	0.34875	0
0.284404089024	0.436274603008	0
0.085693062839	0.428784522252	-0.02
0.09	0.43	0
0.097661558943	0.427374376079	0
0.094147802796	0.437110259439	0
0.3275	0.0925	0
0.32125	0.09875	0
0.33375	0.09875	0
0.32691989272	0.107944207349	-0.02
0.432338441057	0.427374376079	0
0.435852197204	0.437110259439	0
0.44	0.43	0
0.444306937162	0.428784522252	-0.02
0.404375092726	0.051618609857	0
0.396374959076	0.059841701195	0
0.408657050158	0.060233293139	0
0.405127326726	0.068611855722	-0.02
0.42125	0.38625	0
0.4275	0.3925	0
0.43375	0.38625	0
0.422524651814	0.379221101088	-0.02
0.3275	0.3925	0
0.191066705377	0.097762035123	-0.02
0.18375	0.08625	0
0.19	0.0925	0
0.18375	0.09875	0
0.219377433388	0.206569217019	-0.02
0.215	0.1925	0
0.220015841881	0.358787354666	-0.02
0.22125	0.34875	0
0.091844206693	0.321761158457	-0.02
0.094024912206	0.322694943586	0
0.1025	0.33	0
0.09	0.33	0
0.446230437865	0.159061250041	0
0.439330497942	0.154959327335	0
0.436573160467	0.162430886629	0
0.449898726895	0.154846465809	-0.02
0.39	0.43	0
0.396129361049	0.411248561902	0
0.384236864591	0.410750093362	0
0.389034888391	0.417488495217	0
0.380797790296	0.414581361947	-0.02
0.173236977526	0.262714504735	-0.02
0.17125	0.26125	0
0.17125	0.27375	0
0.165	0.2675	0
0.175734283414	0.419191404346	-0.02
0.183133109668	0.423748410507	0
0.1775	0.4175	0
0.19	0.4175	0
0.165	0.155	0
0.17125	0.14875	0
0.1775	0.155	0
0.148996929019	0.337043114732	-0.02
0.1525	0.33	0
0.080091617876	0.365155317478	-0.02
0.090669502058	0.354959327335	0
0.094056765428	0.362318954849	0
0.083790541992	0.359270982994	0
0.40875	0.26125	0
0.4025	0.2675	0
0.40875	0.27375	0
0.410025829705	0.275886481188	-0.02
0.085029385954	0.16125	0
0.089009281218	0.170737990906	-0.02
0.096304436347	0.161719115451	0
0.090669502058	0.155040672665	0
0.14625	0.11125	0
0.142418909041	0.118316789519	-0.02
0.14	0.105	0
0.14	0.1175	0
0.133201576878	0.41067884632	0
0.139859066407	0.416835136128	0
0.14	0.405	0
0.097697505946	0.236800976737	-0.02
0.083163371739	0.236507927533	0
0.09	0.23	0
0.090023222231	0.241849229488	0
0.20875	0.18625	0
0.2269223317	0.187214989397	-0.02
0.22125	0.18625	0
0.215	0.18	0
0.370741024837	0.411784030686	0
0.365	0.4175	0
0.371646354124	0.423134523301	0
0.367549450801	0.408651907855	-0.02
0.12125	0.41125	0
0.44	0.205	0
0.433681355818	0.21171991935	0
0.444868569683	0.211391041417	0
0.429416369036	0.204972456058	-0.02
0.265	0.28	0
0.2775	0.28	0
0.27125	0.27375	0
0.266288409186	0.287884368837	-0.02
0.27125	0.28625	0
0.32125	0.11125	0
0.30875	0.11125	0
0.315	0.1175	0
0.312624587652	0.104550618829	-0.02
0.258656938877	0.418367023516	-0.02
0.25020219742	0.428868532512	0
0.244139252824	0.42375	0
0.251629451564	0.417390111038	0
0.133230488564	0.216652399104	-0.02
0.1275	0.205	0
0.13375	0.19875	0
0.14	0.205	0
0.13375	0.21125	0
0.42125	0.39875	0
0.413494874393	0.393836300881	-0.02
0.1775	0.2175	0
0.17125	0.22375	0
0.1775	0.23	0
0.18375	0.22375	0
0.34	0.155	0
0.34	0.1675	0
0.34625	0.16125	0
0.342038367974	0.153727674417	-0.02
0.2025	0.155	0
0.19	0.155	0
0.19625	0.16125	0
0.191565727213	0.165180809631	-0.02
0.19625	0.14875	0
0.38375	0.11125	0
0.39	0.1175	0
0.39	0.105	0
0.38765903132	0.118422701158	-0.02
0.39625	0.11125	0
0.159700232403	0.093847529239	-0.02
0.151629106168	0.080116038995	0
0.1525	0.0925	0
0.146032276542	0.086279009749	0
0.254999322895	0.171867542511	-0.02
0.25875	0.18625	0
0.2525	0.18	0
0.25875	0.17375	0
0.265	0.33	0
0.415	0.3675	0
0.415	0.38	0
0.408091252624	0.379329751274	-0.02
0.40875	0.37375	0
0.42125	0.37375	0
0.194221905928	0.064994827971	-0.02
0.189883458561	0.052160770932	0
0.19474905172	0.06002186908	0
0.184186514176	0.06038781695	0
0.33375	0.38625	0
0.3275	0.38	0
0.33764702729	0.383121624701	-0.02
0.17125	0.41125	0
0.18375	0.41125	0
0.1775	0.405	0
0.247684674679	0.438408241212	-0.02
0.24	0.43	0
0.1025	0.2925	0
0.098872077755	0.274735729379	-0.02
0.10875	0.28625	0
0.096899913071	0.286191668102	0
0.232855421175	0.216754989159	-0.02
0.23375	0.22375	0
0.24	0.2175	0
0.24	0.23	0
0.385915641967	0.42375	0
0.378376264261	0.417387253125	0
0.226514488669	0.338712656608	-0.02
0.22125	0.33625	0
0.215	0.3425	0
0.20875	0.33625	0
0.10875	0.37375	0
0.121697490077	0.378189950949	-0.02
0.12125	0.37375	0
0.115	0.3675	0
0.115	0.38	0
0.42125	0.34875	0
0.4275	0.355	0
0.4275	0.3425	0
0.427852859428	0.361533418652	-0.02
0.14	0.2925	0
0.094010881103	0.212409154141	0
0.099121076515	0.222337207068	-0.02
0.1025	0.2175	0
0.1025	0.205	0
0.14	0.3675	0
0.133978964406	0.369188919622	-0.02
0.14625	0.36125	0
0.14	0.355	0
0.13375	0.36125	0
0.252467627014	0.405460749652	0
0.246218115155	0.411237230869	0
0.34625	0.26125	0
0.240932088888	0.306892093686	-0.02
0.24625	0.29875	0
0.24	0.305	0
0.24	0.2925	0
0.433639604338	0.261275292475	0
0.4275	0.255	0
0.42125	0.26125	0
0.10875	0.34875	0
0.082875220492	0.110718435428	0
[...]
CELL_DATA 10569
SCALARS Resistivity(log10) double 1
LOOKUP_TABLE default
2.7131234153581 2.6895437789506 2.6414252455738 2.8597158542226 2.4704212904606 2.3638583797529 2.0520117358895 2.1352608664234 2.8188467453003 2.2876801024418 2.2960672711386 2.2615355103774 2.6067109496327 2.5959982280896 2.3592991090259 2.2865949921565 2.2604645947844 1.9577543827132 1.8944485793066 2.6495472607103 2.4532666746116 1.8986627772954 2.4341972994426 1.9335027637181 2.2892767650295 2.1269242942122 2.0194655486743 2.0292856543638 1.8916629869223 1.8928426400218 2.8063151901983 2.0953433515988 1.9590584200068 2.0419803969225 1.9211578840511 2.1417481255531 2.1810358582945 1.9085147482496 1.9093337123597 2.5963879098099 2.2296994962328 2.9195052750171 2.8888551763652 2.1779504120609 2.3450810925725 2.7757705138894 2.1153646206602 2.6847877617811 2.3765455239349 1.778474813391 2.5267860366896 1.7843549352204 1.7856062446945 2.3420745148105 2.3362420055035 2.7019949624533 1.8400607548118 2.7043629124084 2.4351876596486 2.8686033036423 2.5964086566592 1.8365422891571 2.390957494191 1.8505216166074 2.3506040219367 2.6737536177322 1.8045660455538 2.079887064619 2.7127202037882 2.394863408234 1.9179687349968 2.5124691851167 2.4734359577239 2.3246925793609 2.7945640540246 1.9090816924535 1.9050789608401 2.4873403078915 2.44336653541 2.1689536552769 2.0041434989845 1.8736947753591 2.6374493648766 2.1957001980204 2.0250728234751 2.0051224245047 2.5324730264756 2.6068737857622 1.9957840226408 2.4987379724553 2.5157163134232 1.847486628109 2.9086256053343 2.0889386874316 2.101076079884 2.3664686664317 2.1561250839822 2.1578995892395 1.9832990658621 1.9062989423056 1.895719374688 1.886899802531 1.8887569888167 1.8372826208311 2.0344105002612 2.4612941653819 2.6503487228934 2.3494790347196 2.3441172298116 1.7868195742818 2.6139096331017 2.769195351725 2.7752919811884 2.9199716466309 2.3222821159631 2.209799195562 2.4984180525084 2.6712258833114 2.5194928009107 2.5291065542949 2.2805525788963 2.3756255614522 2.1297164656183 2.5452427360909 2.5392313434382 2.8868965768962 2.274923567757 2.5578016748814 2.1059428827892 2.441823641642 1.9186122418816 2.6430785803385 2.6442854126283 2.1349141015545 2.0932853037751 2.3812194181631 2.1125575631791 1.848199290935 2.6795075869693 1.8216913968927 2.1215157266591 2.0905297269322 2.114617720466 2.1917952009692 2.7849530561099 2.4939405875321 2.6147068268472 2.6136344027202 2.6051672288156 2.3853331571926 2.4445011895541 2.091046756723 1.9135926744127 1.9196623676682 2.1787471963375 1.9660138667323 2.2033821503263 2.2164322739854 2.6850738339709 2.7009839604348 2.7862908138914 2.8325076533911 2.8245390921031 2.8247686040551 2.3665331646306 2.5978302643293 1.9564440748956 1.9489962538848 2.6094059414416 2.5971134806041 2.4129845231614 2.4184755523222 2.1275876954087 2.6858693435968 2.11775507167 1.9947432835808 2.004073805633 2.3775556907702 2.382907968404 1.8952423637847 2.1619242688236 2.1514810520431 2.4878488691825 2.4431212838751 2.588113429213 2.3872253387738 2.49993665749 2.5068140093116 2.4655186187324 2.164976902408 2.055088012904 2.5275720763835 1.8289135008975 2.6881813366808 2.2715783921405 2.7232489968483 2.7210276782309 1.9610354415316 2.096253794133 2.0765172606102 2.2148911530964 2.066152090495 2.0558796944123 2.716915997968 2.2769783735309 2.9246063741153 2.0419146647413 1.8442391216316 1.8649769207571 1.9520748302401 2.8646044472617 2.464131687182 1.8939302894253 2.0491021040948 1.9018717125204 2.2804431321453 2.4657045932065 2.3482837338716 2.4464983634378 1.9995160876231 1.9937487281986 1.911170914888 2.2190540901809 2.4406914780528 2.8088453762518 2.4437039437253 2.7932122499651 2.0025293026298 2.0053734073521 1.9522798186137 2.5756087877451 1.7999761385069 1.7976181849584 2.6629002586651 1.8674752237154 2.7611654212563 1.8128599704004 1.8126666960002 2.5048024720181 2.5173232420463 2.0098410319465 1.9941729915482 2.5337635505204 2.5436828712307 1.8844214123903 1.8826881666905 1.7821454935905 1.7847020990977 2.8106006830357 2.8056322601094 2.6430087107468 2.6445605114237 2.8284548790038 1.9113941321367 2.3231063801214 2.4940225622698 1.9357057408906 2.1159660678222 1.9233670454079 1.940570656118 2.8008516385493 2.6196448718859 2.4519384471349 2.4631366757337 2.332192786437 2.3225245746506 2.5379720837045 1.8391777425615 2.3460552408408 2.2394251957269 2.2490696881319 2.5015117547532 2.5093851171234 2.8794327048952 1.9964164563126 2.0064557723249 2.469494858729 2.648261125676 2.6375403582796 2.1370975405569 1.8014653652232 1.8008290890959 2.1457129967738 2.0957717570454 1.8531140666855 2.8964036856628 1.7950256498409 1.7914463035047 2.7083604116091 2.7227461908215 2.2521404908475 1.9621096659444 1.8959053838443 2.5966630492042 2.4201322992228 2.4310515028242 2.9081711025177 2.154695524876 2.1696558799692 2.1988827776266 1.8878575785183 1.8813249195588 2.020331300582 2.0084063785756 2.4432787743032 2.4443760703167 2.3575163333563 2.2415143899287 2.2432210465648 1.9852863674855 1.9420954659312 1.9361999793136 2.5107999717612 1.7863640009508 1.7865098853656 1.8512258863674 2.3383296265222 2.2721700659445 2.2567947494246 1.7944701693382 1.9244498576583 1.929161149102 2.2172204906085 2.1130516643944 2.5431550545108 2.5390091099259 1.8415992545191 2.4934930091328 2.4956852234259 1.9078813975921 2.1007269347008 2.6819838503173 2.0753419754167 2.0723344692962 2.8230076820072 2.8007028582143 2.063343258708 1.995105860841 2.5406245387841 2.531728427305 2.5262017267676 2.5172809437925 2.0090126367061 1.7767773181042 1.8672356891133 1.8748567454884 2.638481558876 1.7997691078452 2.4153202889261 2.4029632655681 2.1708747674341 2.3105321170545 2.5703842302573 2.5730194222491 1.9057857002578 1.9026707713317 1.8448430599933 1.903323978091 2.0783402574256 2.2006826637569 2.0048734177612 1.9111360949989 2.0678610641679 2.0817701221974 1.8479414426118 1.8488953509338 2.8929533504747 1.9053400238071 2.6915432140665 2.289278521177 2.1081797674502 2.8197322829936 1.940354437142 2.4972606915714 2.5074471604842 2.4162632744349 1.9352289773813 1.8715782403135 2.9358073927754 1.8705010661072 1.870037464413 1.8739774697299 1.8770773846346 1.8779844945731 1.8753613813348 2.6206819587952 2.1963793287512 2.2116311778243 2.2207302060231 2.6705361078241 2.6839558593486 1.8278865053477 2.5721082150383 2.5845945304134 2.60883674825 2.9022550704043 2.6772463573385 2.6851285678087 2.3147556399818 2.4897904559156 2.4986117556489 1.7889666675189 1.9743446230705 2.4046942805729 2.3973884712979 2.2690254243247 2.2698432255294 2.1847372302694 2.1610248034511 2.3697249530876 2.1766749336546 2.3332188351382 2.6551783092513 2.6541759606515 2.3071133987982 2.7708701911743 2.1667024224916 2.1515398357253 2.2783509321957 2.2846938926993 2.5455539104971 2.2843190680434 1.8719184794759 2.8294981233354 1.8599109859053 1.8575950308373 1.8070164354789 1.8812715296168 1.8852358283044 2.2149563740548 2.1825834851072 2.1986727698776 2.750298458006 2.7523538171562 2.4270267049466 2.4293670354833 1.8969635712483 1.8966258555833 2.7852947156793 2.5118019835831 2.2313495904211 1.9582003973314 1.954920978178 2.0593201493393 2.0603970282929 1.9103906047609 1.9941712350713 2.011816387175 1.8510618981403 1.8479068826144 2.676284885326 2.4729037449519 2.3337139979535 2.3430534252108 2.1689421860842 2.184510669865 2.1367252388204 1.8531657338903 2.6436502973001 2.6523651329969 1.9266519605345 1.9917543404439 2.0026013216772 2.6101928501425 1.9815509978974 1.9052196758604 2.2208064669639 2.2113656600034 2.529210318866 2.5416615845359 2.5800808394928 1.8195986785346 1.8155291152123 1.9544234282813 2.3911937306727 2.3864149301616 2.3503757170168 2.3417907222858 2.3584775472497 2.389321079196 2.218802040788 2.1971449871934 2.715998991935 1.9670269899382 1.8347477333946 1.8360476006569 1.8519470926464 2.2665040517865 2.7778833027683 2.2954283139248 2.1025132761327 2.10212872303 2.1952598902421 2.8427412841949 2.8406710983861 2.0597611251486 2.0562488253681 2.4599816031525 2.4828402770055 2.4935262642911 2.8168652872457 2.5754893462604 2.5845178528598 2.2140263732777 2.2242085280556 2.1876067017377 2.1932885201233 2.0678016679363 2.0568715140887 2.0388632137828 2.025794808378 2.1854209955255 1.8405382750022 2.8672178273404 1.9033295327503 2.8546068648092 2.1473327045822 1.8958135951953 1.8988413874654 2.5848175777764 2.1554526593807 2.163012143753 1.9717848126228 1.972159201111 1.9354707126134 2.4150700717066 2.3984654726957 1.8751762506682 1.8706291596421 2.7026214824183 1.9492228231766 2.4581797396762 2.5904451596967 2.4860164876268 2.4722563099811 2.7342961078831 2.5172593032406 2.7327058119462 2.0360328615783 2.0542421931991 2.0499721428779 2.0415883496732 1.8560342875222 1.8614204398887 2.8150040337399 2.8045148991792 2.0585010196226 2.3806217454426 1.8441431621915 2.7836526395407 2.7958628614228 2.7637236141169 2.6273979989734 1.9794118348364 2.4601145112839 2.6429297816854 2.6509401160138 2.0986876340474 2.5356924087435 2.5464653195133 2.3661284043396 2.1513864637079 1.9722457518671 2.4156831937729 2.6284257412493 1.8390905573677 1.8489284451481 1.8454149123178 2.3498685058312 2.3317750189954 2.4100056858399 2.3681177214641 2.3605632463702 1.8088623195223 2.7667878439792 2.6151404548223 2.6038803289696 2.0809208792848 1.846240624747 2.3437457327777 1.8577188465572 1.8647673806116 2.536123195245 2.5982051708219 2.6067366115737 2.0003473468069 1.8563289965817 2.3495623724355 2.3445774494174 2.1435795136019 2.1443073309908 2.2583277910202 1.9316446668881 2.1859991563151 2.8885892941001 2.6482801441136 2.606832019998 2.6161955872182 2.2228573025065 2.4397682065722 2.0811846408524 2.0864030925348 2.7313797459277 2.7218623023611 1.8689623720406 2.3436350918312 2.6156880302618 2.4266339852835 2.1758314843969 2.4227846237419 2.4324560754264 2.6157187814134 2.3108725285833 2.0521214190788 1.8975026031627 1.8726141425225 1.9725312651752 2.7913149189777 2.1641001949772 2.7352102560725 2.7400529277679 1.8993283651643 1.7919396975665 2.2282010303496 2.2976219163652 1.9100329984598 2.5200811382786 2.5177870405402 2.3526000756141 2.1425907414548 2.141625424037 2.5631052484717 2.5947312863629 2.3942645920817 2.0140807847755 2.0376855239384 2.614611353188 2.406328251142 1.9047614462555 1.9081638219495 2.0894985961972 2.0760531932758 2.1597265461027 1.9215725090976 1.9221029181792 1.7726320881605 1.8221333575613 1.824146635023 1.8743909768576 2.4124608334954 2.1724441031082 2.1772590507559 2.4954214037236 1.8460288051663 2.1712070018623 1.9300709243176 1.933275309419 2.522706477741 2.9127837596733 2.7237823491154 2.7181882762999 2.0187628472496 2.0106244682042 2.7615042263841 2.4513012688818 2.0040592837634 2.8734342543107 1.8309930868874 2.5964748291123 1.9437278675057 2.1025613062655 2.475941435674 2.412840802209 2.6579466961545 1.8175583786296 2.4308521253647 2.4265939399404 2.3124519822121 2.6365842798422 2.6260308241499 2.6335431967389 1.896174269634 1.8922548364952 2.5500268575156 2.5811641973359 2.5856377988237 2.1554145380206 1.8765246923721 1.8719536310464 1.8750073011332 1.9827863687967 1.9862830137493 1.9131024047522 2.3261609486396 2.2833795962405 2.2623757107419 2.507936672556 2.4930393313074 2.3646848589097 1.7720082142176 1.9982530662693 2.0010341223619 2.4150401759066 2.1633950904321 2.5680507849612 2.5783164932501 1.8153989688062 2.4051002672588 2.4251519932248 2.6171877981948 2.6275235476459 1.8598734999539 1.9316952804877 1.931183596676 2.4176003462695 2.8634413378005 2.8697594528862 2.4478837469647 2.1894327721394 2.2060919752981 2.81658279745 2.2455393254775 2.2362831761736 2.2220885230945 2.9076233474015 2.899555573759 2.382836403569 2.6174522565806 1.8425382568289 1.8055445211514 1.8526255484037 2.547333190799 2.1692686707308 2.7106208919448 2.7082485535115 1.9675470648999 2.1231728548314 2.1450792603613 2.1850107118909 2.5988335172775 2.340760350592 2.376444309565 2.4205039938058 2.4134754391955 1.7795598001291 2.0168183042601 1.9105330979059 1.9091310716169 1.9692539087144 1.9529492535508 2.4040133899087 1.934315927946 2.2476447937497 2.2475579349231 2.4308852768698 2.5742646505666 2.5411091036956 2.5493962807165 2.391455896897 2.4017661672014 1.8172192984299 2.0121971523457 1.9822580770729 2.4173867604445 2.4302865667873 1.8048951870274 1.8090001466129 2.6368262896497 2.6426585100858 2.4717585005829 1.8319418726094 2.4410747235087 1.7834008551682 2.3949316553497 2.3860473229744 1.8718836506552 1.8755478427119 2.6462943427739 2.6377428583471 2.012086777819 1.9931169989374 1.7749579693063 2.5633105748766 2.5521630084588 2.3167903551144 2.3253766984443 2.5338146331585 2.5356640010804 2.5902529173928 2.3149155638764 1.83304624547 1.9126120107318 1.9141110203662 1.8640574739099 1.8647037784679 2.5727516112845 2.5839041358231 1.8278977647462 2.2572000505568 1.8304220870071 1.8527933765603 2.1779503486178 1.9874875143797 1.9459203921819 1.8255865846655 1.9019176776641 2.3470794630428 2.5036674271303 2.4303952408157 2.4357533090652 2.5694017438538 2.6382922737796 2.3830819048189 2.3762505050453 2.360987490819 2.3677851650124 2.377525567659 2.807738115181 2.5531676012111 2.5460590045122 1.9855403289341 2.5907339076042 2.6040478483852 2.0276394582247 2.0814014574485 2.0802403407966 2.9118862337464 2.5805865350386 2.272188807301 2.3152345919979 2.7787886866725 1.9473900850405 2.1560675993302 1.8646213555263 1.8593984267614 1.8670339114008 1.8629657458726 2.5524251680201 2.1903584786472 1.9778382938717 2.3908147812093 1.9243938877122 2.9092610114848 1.9713950810767 1.9647370478961 1.9267225452034 2.0389910464429 2.0508883912996 2.1024730803892 2.1106662979723 2.5477013845036 2.548482830242 1.8795394407444 1.8788453614473 1.7877437994991 2.7417869229067 2.1056178105731 2.1181259736879 2.2756746186284 2.5833641358005 1.9700533458265 1.9634910848403 2.3620688341289 1.9759903861291 1.9770402666273 2.3997065496342 2.4135693671735 2.3399665668934 2.3115346787258 2.789102450616 2.7933099999099 1.7805214300326 2.1518019523398 1.9090843201701 1.9175424061929 2.6035324230588 2.6114190384097 2.5063063056527 2.4941453965885 2.3616900449169 2.0440893257221 2.4563013794767 1.8886606331385 1.8932976112844 1.9522913922812 1.9648559915458 2.0965172147059 1.9765384125107 2.3187039414694 2.3138243719899 2.7026776322948 2.186701457027 2.2018296871732 2.0721237181725 2.2060495706888 2.633413357743 2.6322505484954 2.5966501142269 1.9587204002247 2.2288621586561 2.2374321482421 1.8869398458423 1.8829532640792 1.8974984265172 1.8823588470606 1.8793475570736 2.4754462088367 2.1591420568935 2.51444961085 2.5029211198685 1.9582699850781 1.9594151106046 2.5216029672317 2.5172096463913 2.7014709680271 2.1424782375153 1.9239804271908 1.9309971776738 1.8562392440426 1.8614705170494 2.0159150008053 2.5061777129275 2.4934970290389 1.9475772617448 2.5288058700624 2.5367966882229 2.2838988866268 2.8278639666876 1.9649577021522 2.3649871887982 2.1209743554209 1.9674601929863 1.9621442904183 2.4391892612956 2.6405791011251 2.6345306340301 1.8686531471747 1.876930781527 1.8756201143648 1.8239914711726 1.8180322478617 1.8604626414669 1.8755038872033 1.8680148207001 1.9015963991682 2.409641380986 2.2773991078127 2.4331038308007 2.4532484131349 2.3110070809549 2.1870390514528 2.5307554852506 2.5474110422929 1.9710890086726 1.9881968802945 2.5789073899321 2.5768029153135 2.5731645677064 2.5620934135995 2.2652905006871 2.4999662278082 2.9060256954848 2.7002246206827 2.5038400162868 2.3731483654508 1.828840272986 1.8255417304726 2.2368739519794 2.6744564233492 2.9267763193153 2.4197933133767 2.4885296819724 1.789198737287 1.7944557467723 1.9079313235854 2.6302024134926 2.3036154181932 2.3019708423421 2.8076835512267 1.8955044811215 1.8616737024076 2.658089946385 2.0175722020561 2.4809617359512 2.741199531966 2.8512303260056 2.859445434826 2.4689069085194 1.7867900483275 1.9241949082749 1.9400036261072 1.8375828803732 1.8277580795473 2.8211674876676 2.496201050953 2.071644955974 2.0770066741632 1.9021438252723 2.8412608324064 1.9509335260815 2.2214162830369 2.7508631722516 2.1820687810853 2.4466113548582 2.4401705330611 1.929465400199 2.4181216817641 1.8279394863292 2.3320920912815 1.9106170759608 2.3833714484288 1.8293161934709 2.19789079493 2.8856462787164 2.7290570450277 2.7041067828147 1.9968371616953 1.9999155713112 2.1445405827307 2.1624369342839 2.3313849172866 2.3427109749902 2.0662091535188 1.7882380026755 1.7902334926931 1.9024358268863 2.3193950561905 2.3155842460665 2.3599429144109 2.3502142551223 2.4379302372341 2.907012441365 1.7889583749036 1.7924619046079 1.8909215680646 1.8894583428557 2.6662737413368 2.2183933930997 2.6549979351838 2.5975899869823 2.5157003020547 2.5099596164821 1.9697356135484 2.1521183808394 2.0504585400553 2.0421100920722 2.7229739839852 2.2246503874707 2.4984357031519 2.4880815685917 2.2896670833385 2.3058859019596 1.8011288938824 1.7991933619526 1.9714406735201 1.9833478407122 1.9547168374819 1.944799890126 1.902664146432 1.9094375605777 1.9936050540569 2.0089901589033 2.4945865925344 2.4842668153492 1.8238310130031 1.8309331058463 2.2700006617948 2.0103293568491 1.8598396745106 2.451148501434 2.4583196762431 2.3089883254899 1.8710560285392 1.8829625264143 1.8819456199417 1.9298188112829 1.9297092573155 2.7102568173581 2.7029253214137 1.9489946559683 2.745808641039 1.8673801749596 1.7850991525221 2.7508153909232 2.0442839547173 2.5513527174062 2.5071195139823 2.2698777742549 2.2555431268028 1.8749375805422 2.2982873744837 1.9558394400094 1.8684234373602 1.8645710866435 2.0270380340434 2.0357515501097 2.6550644674568 2.4237193192891 2.4177027350907 2.563491070759 2.5573131247674 2.1349942214449 1.8116177863975 2.357087030131 2.3642007838878 1.9598848203863 2.1708454339767 2.3284526569274 2.2356302493604 2.2404324236776 2.2487700863373 2.8697555607089 2.5650135524399 2.5721421770763 2.8031551126312 2.796108894269 2.9201043103992 2.3343252795943 2.3251080456549 2.5795040973713 2.7045550544397 2.3849928605436 2.3702293595521 2.7073586861446 2.0137542558787 1.779446309835 2.8624097123536 2.7345122847877 1.8859854921749 1.8900650918835 2.6730362504964 1.853472767154 2.0315165865021 2.0388896858386 1.8252136591593 1.9235491029899 2.6351975610738 1.8186406263655 1.8058305649359 2.0483331927305 2.3341452343411 2.6737674816433 2.6868735771852 2.100149351514 2.4653864156686 2.4600591525527 1.8422631114449 2.4908553645493 2.0257216780529 2.3622832723796 1.8460337567073 2.7704146436377 2.5661101640571 2.190288225771 2.7353620702794 2.5876287785108 2.4400790234438 2.4331478033371 1.9068838056596 1.7867189074093 1.9510286380153 1.7908188486961 2.8414355779153 1.9188247766956 2.0627030378621 1.8590521274717 2.2718887196019 2.2804713925815 2.3237635432749 1.888739329406 1.8661231672771 2.2067259775056 2.9397272048228 2.2520917695015 2.87748120429 2.9108902362662 2.8942092966392 2.3919107818055 2.4010557546045 1.8937952931786 2.2007807247016 2.4261616295009 2.9309625361235 1.8313288714204 2.7833271086867 1.9804399205089 2.0021283892105 2.4009235278181 1.8919408299134 1.879803837194 1.8838563280315 2.0357653920333 2.5621266279788 2.5709574129783 2.0415248893256 2.0490438278289 2.5751546254107 2.5613280112235 1.9795588363487 1.9748067878528 2.4549200107461 2.4703704695205 1.9321682350851 1.9068036826692 2.1047483919097 2.0973106837369 2.3444428902979 2.3581781590524 1.9551311422445 2.6341954773164 1.9075774050842 1.8955606662534 1.9246263296794 1.9376604916232 2.762839681472 2.4574856662462 2.4474500294027 2.6393304713477 2.6270663499429 2.2006934961522 2.19267513487 2.7696795009882 2.575319567264 2.5173009541357 2.0154036760349 1.8754613198614 1.8813665092306 2.5050505438524 1.8053937950362 1.8009804821727 2.3556832489802 2.3524689671279 2.6775125694357 1.8613603483108 2.1158233831997 1.8748962704282 1.964122012465 1.8436787653678 1.9556422109502 2.4207225966087 1.883352527454 2.1434282465883 2.1605530804941 2.7578627437434 1.9642136211654 2.0326606787508 2.4351624038828 2.9375370394464 2.505805684414 2.511945149709 2.5046325507061 1.8074209861142 2.453539420966 1.826587280